 position data for Lammps generated by PYTHON

 2   atoms

 5   atom types

-15.800000  15.800000   xlo xhi
-15.800000  15.800000   ylo yhi
-15.800000  15.800000   zlo zhi

Atoms

   1 4 0.000000 0.000000 0.000000
   2 5 0.000000 0.000000 0.300000
